entry_id,formula,band_gap,avg_atomic_number,avg_atomic_mass,ntypes,a,b,c,volume,density,c_over_a,b_over_a
6321,YbSe,2.083,52.0,126.0,2.0,4.171651408928843,4.171651408928843,4.171651408928843,51.334464331904016,8.15155764872319,1.0,1.0
6320,YbTe,1.62,61.0,150.32,2.0,4.489080128284859,4.489080128284859,4.489080128284859,63.96716075042932,7.804386810723939,1.0,1.0
17352,UTe,0.0,72.0,182.814455,2.0,3.744669,3.744669,3.744669,52.509793006056576,11.562435405365349,1.0,1.0
7648,CaSe,2.167,27.0,59.519,2.0,4.198733598648288,4.198733598648288,4.198733598648288,52.34075263834892,3.7765458026920395,1.0,1.0
7649,CaTe,1.644,36.0,83.839,2.0,4.518484456673719,4.518484456673719,4.518484456673719,65.23240345551143,4.268367486846644,1.0,1.0
9277,Se,0.0,34.0,78.96,1.0,2.822979,2.822979,2.822979,22.496913703007824,5.82818455068319,1.0,1.0
8122,HoSe,0.0,50.5,121.94515999999999,2.0,4.042967874247828,4.042967874247828,4.042967874247828,46.72893395290569,8.66678031430284,1.0,1.0
20684,ZnO,0.0,19.0,40.7042,2.0,2.66039,2.66039,2.66039,18.82937566581732,7.179304887079966,1.0,1.0
8123,HoTe,0.0,59.5,146.26515999999998,2.0,4.3266082031716255,4.3266082031716255,4.3266082031716255,57.270069512752734,8.481882933554013,1.0,1.0
4543,HgSe,0.176,57.0,139.775,2.0,4.397781329125176,4.397781329125176,4.397781329125176,60.143111920769186,7.7183185553836084,1.0,1.0
11469,CuO,0.0,18.5,39.7727,2.0,2.9571658137561374,2.9571658137561374,2.9571658137561374,18.285718632799163,7.223574151247288,1.0,1.0
4523,HgS,0.179,48.0,116.3275,2.0,4.235237279120262,4.235237279120262,4.235237279120262,53.7178030071173,7.191893477631535,1.0,1.0
14034,PbS,0.0,49.0,119.6325,2.0,3.648754,3.648754,3.648754,48.57734249311576,8.178892873389463,1.0,1.0
18147,TbTe,0.0,58.5,143.262675,2.0,4.36575222036455,4.36575222036455,4.36575222036455,58.8385894609706,8.086300882970358,1.0,1.0
17898,TiO,0.0,15.0,31.9332,2.0,3.006376203086034,3.006376203086034,3.006376203086034,19.213875732212195,5.519586671078249,1.0,1.0
14052,PrTe,0.0,55.5,134.253825,2.0,3.898246,3.898246,3.898246,59.23900096984099,7.526586131253151,1.0,1.0
5624,SrS,2.587,27.0,59.8425,2.0,4.274733435490218,4.274733435490218,4.274733435490218,55.23471487301248,3.598128802160156,1.0,1.0
5625,SrSe,2.414,36.0,83.28999999999999,2.0,4.443193140826538,4.443193140826538,4.443193140826538,62.02554344129978,4.4596561795944005,1.0,1.0
5626,CaS,2.4,18.0,36.0715,2.0,4.030256922749219,4.030256922749219,4.030256922749219,46.289575711785126,2.587975115498756,1.0,1.0
14036,TePb,0.0,67.0,167.39999999999998,2.0,3.970582,3.970582,3.970582,62.59829556579997,8.881207950622754,1.0,1.0
5627,MgS,2.95,14.0,28.185,2.0,3.684060271107409,3.684060271107409,3.684060271107409,35.356167446602896,2.6474755063989304,1.0,1.0
14035,PbSe,0.0,58.0,143.07999999999998,2.0,3.756529,3.756529,3.756529,53.01029702902843,8.9639161935263,1.0,1.0
5578,VO,1.191,15.5,33.47045,2.0,3.1271302423228238,3.1271302423228238,3.1271302423228238,21.623346667330733,5.140646425773118,1.0,1.0
20737,BeO,7.021,6.0,12.505790999999999,2.0,2.6858899540081684,2.6858899540081684,2.6858899540081684,13.700917355757062,3.0313816227089614,1.0,1.0
8159,TbSe,0.0,49.5,118.94267500000001,2.0,4.08417805745538,4.08417805745538,4.08417805745538,48.17248002411975,8.200074345371558,1.0,1.0
8166,DyTe,0.0,59.0,145.05,2.0,4.345356432368005,4.345356432368005,4.345356432368005,58.01779501403003,8.303010891351532,1.0,1.0
6117,HgTe,0.0,66.0,164.095,2.0,4.328798819979741,4.328798819979741,4.328798819979741,57.3571032597891,9.501391912358207,1.0,1.0
8158,TbS,0.0,40.5,95.495175,2.0,3.9222421192822865,3.9222421192822865,3.9222421192822865,42.66661601937982,7.433140181955183,1.0,1.0
8173,BaSe,2.106,45.0,108.14349999999999,2.0,4.711284191632044,4.711284191632044,4.711284191632044,73.94399473574435,4.857095087748704,1.0,1.0
2577,MgO,4.975,10.0,20.1522,2.0,2.9691823863956217,2.9691823863956217,2.9691823863956217,18.509540134987624,3.615812730153708,1.0,1.0
2578,MnO,0.423,16.5,35.4687225,2.0,3.154598512344796,3.154598512344796,3.154598512344796,22.198175707968108,5.306490065739094,1.0,1.0
2580,NiO,2.62,18.0,37.346399999999996,2.0,2.9472097502770307,2.9472097502770307,2.9472097502770307,18.10164894211225,6.8518792383869345,1.0,1.0
6628,AgO,0.0,27.5,61.9338,2.0,3.533592190711599,3.533592190711599,3.533592190711599,31.19854077175843,6.592840052299724,1.0,1.0
20235,MgTe,2.458,32.0,75.9525,2.0,4.598379037666426,4.598379037666426,4.598379037666426,68.75421092936342,3.668781647766167,1.0,1.0
5404,FeO,0.0,17.0,35.9222,2.0,3.0266404692212783,3.0266404692212783,3.0266404692212783,19.605029781345646,6.085195198052256,1.0,1.0
8121,HoS,0.0,41.5,98.49766,2.0,3.8791156766977184,3.8791156766977184,3.8791156766977184,41.274630497812986,7.925411355814084,1.0,1.0
8169,ErTe,0.0,60.0,147.4295,2.0,4.311816943522765,4.311816943522765,4.311816943522765,56.684712265662924,8.637688536337073,1.0,1.0
5632,AlO,0.0,10.5,21.4904693,2.0,3.1365489046482278,3.1365489046482278,3.1365489046482278,21.819319028933588,3.2710245296614984,1.0,1.0
5181,CaO,3.687,14.0,28.038700000000002,2.0,3.378556200509324,3.378556200509324,3.378556200509324,27.269579737999994,3.4147469259929237,1.0,1.0
8001,GeTe,0.753,42.0,100.12,2.0,4.2051816193497515,4.2051816193497515,4.326069763620786,54.834044410735444,6.063866831888155,1.0287474252514512,1.0
5611,PdO,0.0,27.0,61.2097,2.0,2.79185,2.79185,2.797018,21.80115100340811,9.32437908723106,1.0018511023156689,1.0
22298,SrO,2.792,23.0,51.8097,2.0,3.100712,3.100712,3.100712,29.81153167494015,5.771728332318049,1.0,1.0
4671,PaO,0.0,49.5,123.51764,2.0,3.50004138815786,3.50004138815786,3.50004138815786,30.31827877597182,13.530178836098605,1.0,1.0
5183,BaO,2.111,32.0,76.6632,2.0,3.9203385878273322,3.9203385878273322,3.9203385878273322,42.60452563832762,5.975996063380874,1.0,1.0
6095,ThS,0.0,53.0,132.05153,2.0,4.039073130097052,4.039073130097052,4.039073130097052,46.59401674903486,9.412226718152754,1.0,1.0
30819,NdTe,0.0,56.0,135.921,2.0,4.494988712548453,4.494988712548453,4.494988712548453,64.22007651701182,7.029020923912697,1.0,1.0
6118,CdTe,0.874,50.0,120.0055,2.0,4.649714989980568,4.649714989980568,4.649714989980568,71.08271404003774,5.606815213134291,1.0,1.0
11517,TaO,0.0,40.5,98.47364,2.0,3.1647044824615143,3.1647044824615143,3.1647044824615143,22.412199967852615,14.591992460651827,1.0,1.0
7682,Te,0.0,52.0,127.6,1.0,3.078524,5.024957051388002,5.024957051388002,68.70500105637352,6.167958138020759,1.6322617758991005,1.6322617758991005
6096,US,0.0,54.0,135.046955,2.0,3.8566296810559866,3.8566296810559866,3.8566296810559866,40.5610155448114,11.057452181808966,1.0,1.0
14050,PrS,0.0,37.5,86.486325,2.0,4.100164327564445,4.100164327564445,4.100164327564445,48.74036652254808,5.893017711443526,1.0,1.0
18158,TmTe,0.0,60.5,148.26710500000002,2.0,4.297099222979148,4.297099222979148,4.297099222979148,56.1062377935648,8.776326133077578,1.0,1.0
5081,ThSe,0.0,62.0,155.49903,2.0,4.204592685437199,4.204592685437199,4.204592685437199,52.56017390630077,9.825394221658362,1.0,1.0
5709,CdS,1.341,32.0,72.238,2.0,4.164358309587685,4.164358309587685,4.164358309587685,51.065697959145005,4.698027288557256,1.0,1.0
6836,O,0.0,8.0,15.9994,1.0,2.340270097198398,2.340270097198398,3.7702718181640433,18.302242543537037,2.9032102176637706,1.6110413164179382,1.0
11516,ScO,0.0,14.5,30.477656,2.0,3.1369123575337583,3.1369123575337583,3.1369123575337583,21.8269049588912,4.6373353081824185,1.0,1.0
19509,YbO,3.583,39.0,94.5197,2.0,3.3315703691130403,3.3315703691130403,3.3315703691130403,26.14760855208146,12.005201494429096,1.0,1.0
4707,CdO,0.0,28.0,64.2052,2.0,3.341215305608425,3.341215305608425,3.341215305608425,26.375359551888565,8.084457981934001,1.0,1.0
5736,CeS,0.0,37.0,86.0905,2.0,4.142070303844685,4.142070303844685,4.142070303844685,50.250154342344736,5.689798990025817,1.0,1.0
6924,NbO,0.0,24.5,54.45289,2.0,3.167005407927495,3.167005407927495,3.167005407927495,22.461120463809568,8.051348231384452,1.0,1.0
5734,LaS,0.0,36.5,85.485235,2.0,4.149173898568485,4.149173898568485,4.149173898568485,50.50913299140121,5.62082792264415,1.0,1.0
5735,LaTe,0.0,54.5,133.252735,2.0,4.59757152172231,4.59757152172231,4.59757152172231,68.71799575103002,6.439983299560271,1.0,1.0
5738,NdS,0.0,38.0,88.1535,2.0,4.064288557914165,4.064288557914165,4.064288557914165,47.472117716916074,6.167086612185313,1.0,1.0
5236,LaSe,0.0,45.5,108.93273500000001,2.0,4.308203627870902,4.308203627870902,4.308203627870902,56.54232577122291,6.398288711493757,1.0,1.0
6097,NpO,0.0,50.5,126.4997,2.0,3.5122361517062033,3.5122361517062033,3.5122361517062033,30.63628694829411,13.712999516630765,1.0,1.0
8487,InTe,0.0,50.5,121.209,2.0,3.850328,3.850328,3.850328,57.0812115826305,7.0521376272247975,1.0,1.0
5242,GdSe,0.0,49.0,118.10499999999999,2.0,4.106951138450274,4.106951138450274,4.106951138450274,48.98280033963232,8.007625753324525,1.0,1.0
5695,BaTe,1.708,54.0,132.4635,2.0,5.008474100696938,5.008474100696938,5.008474100696938,88.83851679778537,4.95192456795649,1.0,1.0
5238,PrSe,0.0,46.5,109.93382499999998,2.0,4.25704728067918,4.25704728067918,4.25704728067918,54.55196806375323,6.692679215348352,1.0,1.0
5239,NdSe,0.0,47.0,111.601,2.0,4.222239242268491,4.222239242268491,4.222239242268491,53.22473596619341,6.963597555401633,1.0,1.0
5241,EuSe,1.806,48.5,115.46199999999999,2.0,4.324493953895877,4.324493953895877,4.324493953895877,57.18615340236551,6.705440060870052,1.0,1.0
4731,GdO,0.0,36.0,86.6247,2.0,3.769847880014524,3.769847880014524,3.769847880014524,37.884056898300585,7.593890964192215,1.0,1.0
8384,NpS,0.0,54.5,134.5325,2.0,3.8901705841147893,3.8901705841147893,3.8901705841147893,41.62851693237291,10.732857605876077,1.0,1.0
6098,PuO,0.0,51.0,129.9997,2.0,3.541892210109167,3.541892210109167,3.541892210109167,31.418903392004434,13.741382256696731,1.0,1.0
5771,EuS,2.068,39.5,92.0145,2.0,4.158328102957726,4.158328102957726,4.158328102957726,50.84418170541085,6.010271658708944,1.0,1.0
6293,ThTe,0.0,71.0,179.81903,2.0,3.852527,3.852527,3.852527,57.17906814380668,10.44425991341168,1.0,1.0
6296,EuTe,1.484,57.5,139.78199999999998,2.0,4.6295681035710015,4.6295681035710015,4.6295681035710015,70.16272270978988,6.616432862557322,1.0,1.0
10375,NpTe,0.0,72.5,182.3,2.0,3.764367,3.764367,3.764367,53.34280789825362,11.349843931782473,1.0,1.0
5822,BiO,0.0,45.5,112.4899,2.0,3.955832861605758,3.955833,3.8380033886906615,41.80128487332076,8.937231205929898,0.9702137382853767,1.000000034984856
18457,NpSe,0.0,63.5,157.98,2.0,4.093711271079337,4.093711271079337,4.093711271079337,48.51059798809596,10.815449530115266,1.0,1.0
5783,BaS,2.249,36.0,84.696,2.0,4.556417907057254,4.556417907057254,4.556417907057254,66.88914615220685,4.205196958598288,1.0,1.0
8278,TeAs,0.0,42.5,101.26079999999999,2.0,4.194892594612882,4.194892594612882,4.194892594612882,52.19723994744215,6.4427741665805875,1.0,1.0
11590,SeS,0.0,25.0,55.512499999999996,2.0,3.828881396748664,3.828881396748664,3.828881396748664,39.69179537766334,4.644822648425542,1.0,1.0
30423,GdTe,0.0,58.0,142.425,2.0,4.385732229573757,4.385732229573757,4.385732229573757,59.650122405849025,7.929649340258206,1.0,1.0
14069,PuSe,0.0,64.0,161.48,2.0,4.150450933415308,4.150450933415308,4.150450933415308,50.55578452659455,10.607840481958938,1.0,1.0
22454,LiS,0.0,9.5,19.503,2.0,3.515719359710328,3.515719359710328,3.515719359710328,30.727526620868833,2.1079141097644936,1.0,1.0
8149,SmS,0.0,39.0,91.2125,2.0,4.004113770835189,4.004113770835189,4.004113770835189,45.39460365470331,6.673124452235308,1.0,1.0
13641,ZrO,0.0,24.0,53.6117,2.0,3.2510422204443916,3.2510422204443916,3.2510422204443916,24.29700991870231,7.328006425407351,1.0,1.0
30411,GdS,0.0,40.0,94.6575,2.0,3.9460772746625223,3.9460772746625223,3.9460772746625223,43.449197457431886,7.235230389251258,1.0,1.0
5237,CeSe,0.0,46.0,109.53800000000001,2.0,4.30034767153192,4.30034767153192,4.30034767153192,56.233576749019335,6.469164475991863,1.0,1.0
22456,KS,0.0,17.5,35.581649999999996,2.0,4.552835704103762,4.552835704103762,4.552835704103762,66.73150773613654,1.7708192716179751,1.0,1.0
17895,PtO,0.0,43.0,105.5417,2.0,3.2516701312660854,3.2516701312660854,3.2516701312660854,24.31109091296647,14.417791194780156,1.0,1.0
5240,SmSe,0.0,48.0,114.66,2.0,4.16513612704699,4.16513612704699,4.16513612704699,51.094317406225784,7.45278219996995,1.0,1.0
22455,NaS,0.0,13.5,27.52738464,2.0,4.026485215178369,4.026485215178369,4.026485215178369,46.15973728677249,1.9805267684227925,1.0,1.0
31001,PuTe,0.0,73.0,185.8,2.0,3.797036,3.797036,3.797036,54.743699646334775,11.27173212620067,1.0,1.0
18322,ErS,0.0,42.0,99.66199999999999,2.0,3.8575432630172797,3.8575432630172797,3.8575432630172797,40.58984739585647,8.154386148473126,1.0,1.0
4570,UO,0.0,50.0,127.014155,2.0,3.597589597049669,3.597589597049669,3.597589597049669,32.92455079387815,12.811835642269514,1.0,1.0
21472,SnO2,0.622999999999999,21.999999999999996,50.23626666666666,2.0,3.5960155773547475,3.5960155773547475,3.5960155773547475,32.88135418741426,7.610935030341289,1.0,1.0
18102,TmS,0.0,42.5,100.499605,2.0,3.835276470477715,3.835276470477715,3.835276470477715,39.89100981347975,8.366973977035567,1.0,1.0
29197,CeTe,0.0,55.0,133.858,2.0,4.566966526018994,4.566966526018994,4.566966526018994,67.35479015555534,6.6001672093149635,1.0,1.0
8296,SmTe,0.0,57.0,138.98000000000002,2.0,4.43898726969204,4.43898726969204,4.43898726969204,61.84957230425898,7.462677952345675,1.0,1.0
13991,PrO,0.0,33.5,78.453525,2.0,3.57718532377175,3.57718532377175,3.57718532377175,32.36751239908559,8.049747027248982,1.0,1.0
13998,SmO,0.0,35.0,83.17970000000001,2.0,3.490882941127932,3.490882941127932,3.490882941127932,30.080902367571547,9.183444027260787,1.0,1.0
17899,ZrO2,3.344,18.666666666666664,41.07426666666667,2.0,3.6128744172317977,3.6128744172317977,3.6128744172317977,33.34598877942278,6.136158532746236,1.0,1.0
30998,PuS,0.0,55.0,138.0325,2.0,3.9525967991850623,3.9525967991850623,3.9525967991850623,43.66490765413972,10.498515688901012,1.0,1.0
5113,K2S,2.438,18.0,36.75386666666667,2.0,5.249983593384078,5.249983593384078,5.249983593384078,102.31960167272851,1.7894293137228838,1.0,1.0
2779,BiTeI,1.334,62.666666666666664,154.49495666666667,3.0,4.421254000464235,4.421161474975213,7.055246001099041,119.43390278438594,6.444022313142767,1.59575676954055,0.999979072568775
11315,Li2Se,3.305,13.333333333333332,30.94733333333333,2.0,4.205227667326705,4.205227667326705,4.205227667326705,52.58399057648571,2.9318385034400696,1.0,1.0
19121,CrO,0.0,16.0,33.997749999999996,2.0,3.1123205978976523,3.1123205978976523,3.1123205978976523,21.317584007867147,5.296528172192555,1.0,1.0
8151,SnSe2,0.759,39.33333333333333,92.20999999999998,2.0,3.880535002037992,3.880498132212023,6.2962040042267535,82.10883070316652,5.594464306719503,1.6225092676448203,0.9999904987776299
8501,K2O,1.942,15.333333333333332,31.398666666666667,2.0,4.508345959645068,4.508345959645068,4.508345959645068,64.794285962783,2.4140421614620724,1.0,1.0
4577,SrO2,3.152,18.0,39.872933333333336,2.0,3.517249,3.517249,4.154376545003233,41.16662909444833,4.825065718196363,1.181143713454246,1.0
11318,Na2Te,2.357,24.666666666666664,57.859846186666665,2.0,5.118566383886996,5.118566383886996,5.118566383886996,94.82656578546889,3.0396081831759685,1.0,1.0
10058,Na2S,2.628,12.666666666666666,26.014846186666666,2.0,4.6179517533696695,4.6179517533696695,4.6179517533696695,69.6358972735919,1.8610517056389,1.0,1.0
11319,K2Se,2.303,24.0,52.38553333333333,2.0,5.46543337275737,5.46543337275737,5.46543337275737,115.44066375318026,2.2605957533005223,1.0,1.0
4663,H2Se,0.0,11.999999999999998,26.991959999999995,2.0,3.431610422301751,3.431610422301751,3.431610422301751,28.57451953372829,4.705717351483786,1.0,1.0
11316,Li2Te,2.611,19.333333333333332,47.160666666666664,2.0,4.5498078728667215,4.5498078728667215,4.5498078728667215,66.598458304896,3.5276550618239764,1.0,1.0
4179,Li2O,5.091,4.666666666666666,9.960466666666665,2.0,3.2471248488766182,3.2471248488766182,3.2471248488766182,24.209285028971017,2.0495951067801967,1.0,1.0
11320,K2Te,2.398,30.0,68.59886666666667,2.0,5.819211623307061,5.819211623307061,5.819211623307061,139.34052922587603,2.452504640605603,1.0,1.0
4571,UO2,0.0,36.0,90.00923666666665,2.0,3.8732099208612487,3.8732099208612487,3.8732099208612487,41.0864017960022,10.913381132090986,1.0,1.0
4576,BaO2,2.349,23.999999999999996,56.44193333333333,2.0,3.781932,3.781932,4.3626617406688775,49.30144445589994,5.703121062256949,1.1535537235119186,1.0
11317,Na2O,2.219,10.0,20.659646186666667,2.0,3.8956973307165432,3.8956973307165432,3.8956973307165432,41.80619341777299,2.4617990904026854,1.0,1.0
6102,PuO2,0.0,36.666666666666664,91.99959999999999,2.0,3.823148174966804,3.823148174966804,3.823148174966804,39.513763255609604,11.598662152483625,1.0,1.0
30681,LiO2,0.0,6.333333333333333,12.979933333333332,2.0,3.207184629448077,3.207184629448077,3.207184629448077,23.326892491112584,2.771953412164372,1.0,1.0
5629,PaO2,0.0,35.666666666666664,87.67822666666666,2.0,3.885885517020799,3.885885517020799,3.885885517020799,41.49110555077486,10.527060121026661,1.0,1.0
5657,SnS2,1.541,27.33333333333333,60.94666666666666,2.0,3.7014610010806543,3.7014874459141427,6.107764002047395,72.47049576787629,4.189469937308115,1.6500954623766702,1.0000071444312073
14225,HoHSe,1.785,34.0,81.63275333333333,3.0,3.812516,3.812472085378331,3.883322,48.882196759831594,8.319248225249543,1.0185719876323143,0.99998848145905
5631,Al2O,0.0,11.333333333333332,23.320825733333333,2.0,3.9703720494505297,3.9703720494505297,3.9703720494505297,44.25665812889848,2.625038393334201,1.0,1.0
8352,SiO2,2.245,10.0,20.0281,2.0,3.208471563789837,3.208471563789837,3.208471563789837,23.35498463128544,4.271992859505407,1.0,1.0
11875,Te2Au,0.0,61.0,150.72218966666665,2.0,4.229713114495001,4.229713114495001,5.156056603784136,80.02628528752916,9.382420423318305,1.2190085862122906,1.0
5617,TbO2,0.0,26.999999999999996,63.64138333333333,2.0,3.8223010610429418,3.8223010610429418,3.8223010610429418,39.487503292863465,8.02879351282359,1.0,1.0
6792,Rb2Se,1.964,36.0,83.29853333333332,2.0,5.716125354104999,5.716125354104999,5.716125354104999,132.06576000212266,3.142081694335724,1.0,1.0
3889,Ag2O,0.0,34.0,77.24526666666667,2.0,3.1474420000371732,3.147446332823008,5.034499000067535,43.19193336372179,8.909217985843666,1.5995525890574231,1.0000013766054576
13996,Rb2O,1.637,27.333333333333332,62.31166666666667,2.0,4.776506306915128,4.776506306915128,4.776506306915128,77.05770471874999,4.028317116134258,1.0,1.0
3506,HgO,0.0,44.0,108.2947,2.0,3.398449,3.42621,3.488555566811428,29.336658763916194,12.259581553176524,1.0265140264901513,1.0081687263807697
6273,CSO,4.762,10.0,20.025033333333333,3.0,4.002698538750327,4.00269830273342,4.002697970977201,61.857709332922305,1.6126858187130206,0.999999858152414,0.9999999410355529
6949,KO2,0.0,11.666666666666666,23.699033333333333,2.0,3.804788854500076,3.804788854500076,4.244406313451152,47.52318575667236,2.4842508000494536,1.1155431945799366,1.0
30892,RbO2,0.0,17.666666666666664,39.15553333333333,2.0,4.014511,4.014511,4.449442013596312,55.21891922881075,3.5324465114019397,1.1083397239654624,1.0
5411,Cs2O,1.251,39.33333333333333,93.93676793333333,2.0,4.225889918941216,4.225889918941216,6.854926095487974,99.073241340322,4.723344196205878,1.6221260437388427,1.0
30883,NpO2,2.612,36.333333333333336,89.66626666666667,2.0,3.854712007465409,3.854712007465409,3.854712007465409,40.500539851486785,11.029063279910808,1.0,1.0
5698,Rb2S,2.209,29.999999999999996,67.66686666666666,2.0,5.517329353642213,5.517329353642213,5.517329353642213,118.76042174459839,2.8384071255585046,1.0,1.0
13242,AuSe,0.0,56.5,137.9632845,2.0,3.706665,4.601150572152362,6.330026123512998,94.93149201718457,9.653000037007923,1.7077416285294187,1.2413181585474709
20807,PtO2,1.415,31.333333333333332,75.69426666666666,2.0,3.147008044550252,3.1476873321321164,4.156050030886298,35.65082275369143,10.577031107667834,1.3206353374543889,1.0002158518733502
6963,CsO2,0.0,23.666666666666664,54.96808396666666,2.0,4.273815,4.273815,4.7068841779787824,65.9129188057203,4.154420072309263,1.1013308198831213,1.0